LAMMPS (3 Mar 2020)
  orthogonal box = (-50 -50 -50) to (50 50 50)
  1 by 1 by 1 MPI processor grid
  0 = max # of 1-2 neighbors
  0 = max # of 1-3 neighbors
  0 = max # of 1-4 neighbors
  1 = max # of special neighbors
  special bonds CPU = 0.000236802 secs
  read_data CPU = 0.00391656 secs
Read molecule mymol:
  3 atoms with max type 3
  0 bonds with max type 0
  0 angles with max type 0
  0 dihedrals with max type 0
  0 impropers with max type 0
Created 1500 atoms
  create_atoms CPU = 0.000589992 secs
  create bodies CPU = 0.00119897 secs
500 rigid bodies with 1500 atoms
  1 = max distance from body owner to body atom
  0 = max # of 1-2 neighbors
  0 = max # of 1-3 neighbors
  0 = max # of 1-4 neighbors
  1 = max # of special neighbors
  special bonds CPU = 0.000435658 secs
WARNING: Using 'neigh_modify every 1 delay 0 check yes' setting during minimization (src/min.cpp:190)
Neighbor list info ...
  update every 1 steps, delay 0 steps, check yes
  max neighbors/atom: 2000, page size: 100000
  master list distance cutoff = 2.3
  ghost atom cutoff = 2.3
  binsize = 1.15, bins = 87 87 87
  3 neighbor lists, perpetual/occasional/extra = 3 0 0
  (1) pair lj/cut, perpetual, skip from (3)
      attributes: half, newton on
      pair build: skip
      stencil: none
      bin: none
  (2) pair gauss, perpetual, skip from (3)
      attributes: half, newton on
      pair build: skip
      stencil: none
      bin: none
  (3) neighbor class addition, perpetual
      attributes: half, newton on
      pair build: half/bin/newton
      stencil: half/bin/3d/newton
      bin: standard
WARNING: Cannot count rigid body degrees-of-freedom before bodies are fully initialized (src/RIGID/fix_rigid_small.cpp:1157)
Per MPI rank memory allocation (min/avg/max) = 15.81 | 15.81 | 15.81 Mbytes
Step Temp E_pair E_mol TotEng Press 
       0            0   0.69058416            0   0.69058416 0.0052832584 
      23            0  -0.12825846            0  -0.12825846 -1.0516032e-17 
Loop time of 0.0187175 on 1 procs for 23 steps with 1500 atoms

100.0% CPU use with 1 MPI tasks x no OpenMP threads

Minimization stats:
  Stopping criterion = force tolerance
  Energy initial, next-to-last, final = 
        0.690584164241    -0.128258463542    -0.128258463542
  Force two-norm initial, final = 27473.6 2.15195e-11
  Force max component initial, final = 15773.9 7.34108e-12
  Final line search alpha, max atom move = 1 7.34108e-12
  Iterations, force evaluations = 23 97

MPI task timing breakdown:
Section |  min time  |  avg time  |  max time  |%varavg| %total
---------------------------------------------------------------
Pair    | 0.0015281  | 0.0015281  | 0.0015281  |   0.0 |  8.16
Bond    | 1.0613e-05 | 1.0613e-05 | 1.0613e-05 |   0.0 |  0.06
Neigh   | 0.012144   | 0.012144   | 0.012144   |   0.0 | 64.88
Comm    | 0.00066206 | 0.00066206 | 0.00066206 |   0.0 |  3.54
Output  | 0          | 0          | 0          |   0.0 |  0.00
Modify  | 0          | 0          | 0          |   0.0 |  0.00
Other   |            | 0.004373   |            |       | 23.36

Nlocal:    1500 ave 1500 max 1500 min
Histogram: 1 0 0 0 0 0 0 0 0 0
Nghost:    257 ave 257 max 257 min
Histogram: 1 0 0 0 0 0 0 0 0 0
Neighs:    7 ave 7 max 7 min
Histogram: 1 0 0 0 0 0 0 0 0 0

Total # of neighbors = 7
Ave neighs/atom = 0.00466667
Ave special neighs/atom = 0
Neighbor list builds = 7
Dangerous builds = 0
WARNING: Changing velocities of atoms in rigid bodies. This has no effect unless rigid bodies are rebuild (src/velocity.cpp:71)
WARNING: Cannot count rigid body degrees-of-freedom before bodies are fully initialized (src/RIGID/fix_rigid_small.cpp:1157)
WARNING: One or more atoms are time integrated more than once (src/modify.cpp:289)
Neighbor list info ...
  update every 1 steps, delay 10 steps, check yes
  max neighbors/atom: 2000, page size: 100000
  master list distance cutoff = 2.3
  ghost atom cutoff = 2.3
  binsize = 1.15, bins = 87 87 87
  3 neighbor lists, perpetual/occasional/extra = 3 0 0
  (1) pair lj/cut, perpetual, skip from (3)
      attributes: half, newton on
      pair build: skip
      stencil: none
      bin: none
  (2) pair gauss, perpetual, skip from (3)
      attributes: half, newton on
      pair build: skip
      stencil: none
      bin: none
  (3) neighbor class addition, perpetual
      attributes: half, newton on
      pair build: half/bin/newton
      stencil: half/bin/3d/newton
      bin: standard
Per MPI rank memory allocation (min/avg/max) = 14.69 | 14.69 | 14.69 Mbytes
Step Temp E_pair E_mol TotEng Press 
      23     1.030023    -192.3877            0    1098.7462 -0.0039378675 
   10000   0.99722624   -784.00941            0    466.01368  0.029985153 
   20000    1.0189836   -1491.6298            0   -214.33384 0.0037823624 
   30000   0.96850421   -2524.8092            0   -1310.7892 -0.014667912 
   40000    1.0227638   -3121.2251            0   -1839.1907 -0.0074906258 
   50000   0.96808007   -3999.4702            0   -2785.9818 -0.041656554 
   60000   0.96556145   -4444.3588            0   -3234.0275  0.023524733 
   70000   0.99220204   -4942.4734            0   -3698.7482  0.036075087 
   80000   0.95192765   -5559.2212            0   -4365.9799  0.022771424 
   90000   0.96262845   -6052.5335            0   -4845.8787 -0.012663575 
  100000   0.90694174   -6541.4974            0    -5404.646   0.04517422 
  110000   0.97634455   -7222.6504            0   -5998.8025 -0.0019072582 
  120000   0.95031537   -7972.4273            0   -6781.2069   0.02047879 
  130000   0.93874133   -8542.9876            0   -7366.2753 -0.027766735 
  140000   0.97778256   -9002.7206            0   -7777.0702  0.013268024 
  150000   0.93619356   -9543.7651            0   -8370.2465 -0.016205523 
  160000   0.97609601   -9971.7051            0   -8748.1688 -0.030893754 
  170000   0.93513903   -10772.533            0   -9600.3361 -0.00071242107 
  180000   0.93918856   -11280.859            0   -10103.586  0.048315656 
  190000   0.89416864   -11473.223            0   -10352.382 -0.0092532216 
  200000    0.9156987    -11810.93            0   -10663.102 -0.011321573 
  210000   0.89119274   -12488.256            0   -11371.146  0.016342811 
  220000   0.90858099    -12903.32            0   -11764.414 0.0050872883 
  230000   0.91100785   -13093.294            0   -11951.346 -0.028466646 
  240000   0.91986319    -13283.41            0   -12130.361  0.016342647 
  250000   0.85458895   -13860.649            0   -12789.422 -0.014376581 
  260000   0.87324027   -14354.639            0   -13260.032  0.031174918 
  270000   0.92457298   -15031.277            0   -13872.325 -0.0022912535 
  280000   0.88201464   -15825.783            0   -14720.178  0.028069758 
  290000   0.86077518    -16304.08            0   -15225.098 0.0078604129 
  300000   0.91184807   -16729.979            0   -15586.978 0.0014971662 
  310000   0.91839036   -17214.076            0   -16062.874 -0.015535237 
  320000   0.86049244   -17408.591            0   -16329.963  0.016652877 
  330000   0.86740931    -17916.89            0   -16829.592 -0.012302726 
  340000   0.90415625    -18260.07            0    -17126.71  0.017543145 
  350000   0.84237609   -18460.427            0   -17404.508 -0.0006691574 
  360000   0.91266291   -18970.522            0   -17826.499 -0.0039154433 
  370000    0.8553082    -20109.27            0   -19037.142 -0.00062698955 
  380000   0.88077936   -20306.795            0   -19202.739 -0.016693743 
  390000   0.82721117    -20659.72            0   -19622.811 0.0050229947 
  400000   0.85630929    -20728.58            0   -19655.196  0.025855983 
  410000   0.85075274   -20965.564            0   -19899.145  0.012482662 
  420000   0.91278857   -20981.056            0   -19836.876   -0.0408078 
  430000   0.83850242    -21343.49            0   -20292.427 -0.022722429 
  440000   0.80285658   -21458.721            0    -20452.34 -0.022899583 
  450000   0.86696621   -21748.989            0   -20662.247 0.0018408665 
  460000   0.86160004   -22146.011            0   -21065.996 -0.019472858 
  470000    0.8542327   -22359.035            0   -21288.255 -0.034464341 
  480000    0.8770708   -22528.268            0    -21428.86  0.023134349 
  490000   0.85789061   -22937.995            0   -21862.629 -0.003695011 
  500000    0.9011124   -23314.862            0   -22185.318  0.011002343 
  510000   0.87033829   -23423.709            0    -22332.74 -0.0025644501 
  520000   0.86705322   -23523.537            0   -22436.686 -0.0025161843 
  530000   0.82172801   -24980.111            0   -23950.075 0.0036697971 
  540000   0.83422182   -25651.179            0   -24605.482 0.0082798257 
  550000   0.80617458   -26255.379            0   -25244.839 -0.0092394744 
  560000   0.82998568   -26287.622            0   -25247.235 -0.015560608 
  570000   0.78576794   -26358.212            0   -25373.252 -0.039743033 
  580000    0.8205329   -26553.005            0   -25524.467  -0.01628669 
  590000   0.82202758   -26707.459            0   -25677.047 -0.016031553 
  600000   0.80231177   -26731.534            0   -25725.836 0.0020997147 
  610000   0.75508817   -26769.873            0    -25823.37 -0.022131646 
  620000   0.85798622   -26945.262            0   -25869.777 0.0091298406 
  630000   0.80651545   -27558.369            0   -26547.402 -0.022591801 
  640000   0.79464296   -27881.282            0   -26885.197 -0.017111738 
  650000   0.81067306   -28091.886            0   -27075.707 -0.00088627836 
  660000   0.79175162   -28308.605            0   -27316.145 -0.031666856 
  670000   0.82837207   -28420.946            0   -27382.581 -0.0084125049 
  680000   0.79226939   -28405.687            0   -27412.578 -0.037412375 
  690000   0.75717046   -28659.959            0   -27710.846 0.0056505056 
  700000   0.77385904   -28649.172            0   -27679.139 -0.0056730556 
  710000   0.80668667   -28757.527            0   -27746.346 0.0081596905 
  720000   0.80290059   -28882.744            0   -27876.308  0.010122938 
  730000   0.80601612   -29406.849            0   -28396.508  -0.02280486 
  740000    0.8219829   -29510.761            0   -28480.406  0.031574356 
  750000   0.81534966   -29805.496            0   -28783.455  0.002551599 
  760000   0.79801451   -29924.639            0   -28924.328 -0.0011250164 
  770000   0.85423812   -30189.108            0   -29118.321 -0.019115919 
  780000   0.76099444   -30596.389            0   -29642.482  0.016556849 
  790000   0.78216631   -30688.606            0    -29708.16  0.015915334 
  800000   0.79683029   -30833.141            0   -29834.315 -0.017543181 
  810000    0.8240638    -30914.48            0   -29881.516 -0.030052401 
  820000   0.79265469   -31143.434            0   -30149.841  0.012164027 
  830000   0.80235523   -31439.288            0   -30433.535  0.034549202 
  840000   0.74190635   -31714.441            0   -30784.461     0.034539 
  850000    0.7837318   -32018.327            0    -31035.92 0.0076047909 
  860000   0.78572714   -32270.045            0   -31285.136  0.014293959 
  870000   0.76873823   -32431.659            0   -31468.046  -0.01832365 
  880000   0.78369426   -32422.607            0   -31440.247 0.0018859213 
  890000   0.76633855   -32735.879            0   -31775.273 -0.019558584 
  900000   0.76987584   -32737.147            0   -31772.108  0.036564254 
  910000   0.80006869    -32738.06            0   -31735.174 -0.0027972464 
  920000   0.74309156   -32960.977            0   -32029.511 -0.0016253526 
  930000   0.78825487   -32966.758       