# LAMMPS data file
301 atoms
300 bonds
299 angles

1 atom types
1 bond types
1 angle types

# System size
-260.85 260.85 xlo xhi
-260.85 260.85 ylo yhi
-260.85 260.85 zlo zhi

Atoms # molecular

1 1 1 0 0 0
2 1 1 -1.136 1.272 0
3 1 1 -2.272 2.544 0
4 1 1 -3.408 3.817 0
5 1 1 -4.542 5.091 0
6 1 1 -5.676 6.366 0
7 1 1 -6.807 7.642 0
8 1 1 -7.937 8.92 0
9 1 1 -9.064 10.2 0
10 1 1 -10.189 11.482 0
11 1 1 -11.311 12.767 0
12 1 1 -12.429 14.054 0
13 1 1 -13.545 15.345 0
14 1 1 -14.656 16.639 0
15 1 1 -15.763 17.937 0
16 1 1 -16.865 19.238 0
17 1 1 -17.963 20.544 0
18 1 1 -19.055 21.854 0
19 1 1 -20.141 23.169 0
20 1 1 -21.222 24.489 0
21 1 1 -22.296 25.813 0
22 1 1 -23.364 27.143 0
23 1 1 -24.425 28.479 0
24 1 1 -25.478 29.821 0
25 1 1 -26.524 31.168 0
26 1 1 -27.561 32.522 0
27 1 1 -28.59 33.882 0
28 1 1 -29.611 35.249 0
29 1 1 -30.622 36.623 0
30 1 1 -31.623 38.004 0
31 1 1 -32.615 39.392 0
32 1 1 -33.596 40.787 0
33 1 1 -34.566 42.189 0
34 1 1 -35.525 43.6 0
35 1 1 -36.473 45.018 0
36 1 1 -37.409 46.444 0
37 1 1 -38.332 47.878 0
38 1 1 -39.243 49.32 0
39 1 1 -40.141 50.771 0
40 1 1 -41.024 52.23 0
41 1 1 -41.894 53.697 0
42 1 1 -42.75 55.172 0
43 1 1 -43.591 56.656 0
44 1 1 -44.416 58.149 0
45 1 1 -45.226 59.65 0
46 1 1 -46.019 61.16 0
47 1 1 -46.796 62.678 0
48 1 1 -47.556 64.205 0
49 1 1 -48.299 65.741 0
50 1 1 -49.024 67.285 0
51 1 1 -49.73 68.837 0
52 1 1 -50.418 70.398 0
53 1 1 -51.087 71.967 0
54 1 1 -51.735 73.545 0
55 1 1 -52.364 75.13 0
56 1 1 -52.973 76.724 0
57 1 1 -53.56 78.325 0
58 1 1 -54.126 79.934 0
59 1 1 -54.67 81.551 0
60 1 1 -55.192 83.175 0
61 1 1 -55.691 84.805 0
62 1 1 -56.167 86.443 0
63 1 1 -56.619 88.088 0
64 1 1 -57.048 89.739 0
65 1 1 -57.452 91.396 0
66 1 1 -57.831 93.059 0
67 1 1 -58.185 94.727 0
68 1 1 -58.513 96.401 0
69 1 1 -58.816 98.08 0
70 1 1 -59.091 99.763 0
71 1 1 -59.34 101.451 0
72 1 1 -59.562 103.142 0
73 1 1 -59.756 104.836 0
74 1 1 -59.922 106.534 0
75 1 1 -60.06 108.234 0
76 1 1 -60.169 109.936 0
77 1 1 -60.249 111.64 0
78 1 1 -60.3 113.345 0
79 1 1 -60.321 115.05 0
80 1 1 -60.312 116.756 0
81 1 1 -60.273 118.461 0
82 1 1 -60.204 120.165 0
83 1 1 -60.104 121.868 0
84 1 1 -59.972 123.568 0
85 1 1 -59.81 125.266 0
86 1 1 -59.616 126.961 0
87 1 1 -59.39 128.652 0
88 1 1 -59.132 130.338 0
89 1 1 -58.843 132.019 0
90 1 1 -58.521 133.694 0
91 1 1 -58.167 135.362 0
92 1 1 -57.78 137.023 0
93 1 1 -57.361 138.677 0
94 1 1 -56.909 140.321 0
95 1 1 -56.425 141.957 0
96 1 1 -55.907 143.582 0
97 1 1 -55.358 145.197 0
98 1 1 -54.775 146.8 0
99 1 1 -54.16 148.39 0
100 1 1 -53.512 149.968 0
101 1 1 -52.831 151.532 0
102 1 1 -52.118 153.082 0
103 1 1 -51.373 154.616 0
104 1 1 -50.595 156.134 0
105 1 1 -49.786 157.635 0
106 1 1 -48.944 159.119 0
107 1 1 -48.071 160.584 0
108 1 1 -47.167 162.03 0
109 1 1 -46.231 163.456 0
110 1 1 -45.265 164.862 0
111 1 1 -44.268 166.246 0
112 1 1 -43.241 167.607 0
113 1 1 -42.184 168.946 0
114 1 1 -41.097 170.261 0
115 1 1 -39.981 171.551 0
116 1 1 -38.837 172.816 0
117 1 1 -37.665 174.055 0
118 1 1 -36.465 175.267 0
119 1 1 -35.238 176.451 0
120 1 1 -33.984 177.608 0
121 1 1 -32.704 178.735 0
122 1 1 -31.399 179.833 0
123 1 1 -30.069 180.9 0
124 1 1 -28.714 181.937 0
125 1 1 -27.336 182.942 0
126 1 1 -25.935 183.915 0
127 1 1 -24.512 184.855 0
128 1 1 -23.067 185.761 0
129 1 1 -21.601 186.634 0
130 1 1 -20.116 187.471 0
131 1 1 -18.611 188.274 0
132 1 1 -17.087 189.041 0
133 1 1 -15.546 189.772 0
134 1 1 -13.988 190.466 0
135 1 1 -12.414 191.123 0
136 1 1 -10.825 191.743 0
137 1 1 -9.221 192.324 0
138 1 1 -7.605 192.867 0
139 1 1 -5.975 193.372 0
140 1 1 -4.334 193.837 0
141 1 1 -2.683 194.263 0
142 1 1 -1.021 194.649 0
143 1 1 0.649 194.995 0
144 1 1 2.327 195.301 0
145 1 1 4.011 195.567 0
146 1 1 5.702 195.792 0
147 1 1 7.398 195.977 0
148 1 1 9.097 196.12 0
149 1 1 10.8 196.223 0
150 1 1 12.504 196.285 0
151 1 1 14.21 196.305 0
152 1 1 15.915 196.285 0
153 1 1 17.62 196.223 0
154 1 1 19.322 196.12 0
155 1 1 21.022 195.977 0
156 1 1 22.718 195.792 0
157 1 1 24.408 195.567 0
158 1 1 26.093 195.301 0
159 1 1 27.771 194.995 0
160 1 1 29.441 194.649 0
161 1 1 31.102 194.263 0
162 1 1 32.754 193.837 0
163 1 1 34.395 193.372 0
164 1 1 36.024 192.867 0
165 1 1 37.641 192.324 0
166 1 1 39.245 191.743 0
167 1 1 40.834 191.123 0
168 1 1 42.408 190.466 0
169 1 1 43.966 189.772 0
170 1 1 45.507 189.041 0
171 1 1 47.03 188.274 0
172 1 1 48.535 187.471 0
173 1 1 50.021 186.634 0
174 1 1 51.487 185.761 0
175 1 1 52.931 184.855 0
176 1 1 54.355 183.915 0
177 1 1 55.756 182.942 0
178 1 1 57.134 181.937 0
179 1 1 58.488 180.9 0
180 1 1 59.818 179.833 0
181 1 1 61.124 178.735 0
182 1 1 62.404 177.608 0
183 1 1 63.657 176.451 0
184 1 1 64.885 175.267 0
185 1 1 66.085 174.055 0
186 1 1 67.257 172.816 0
187 1 1 68.401 171.551 0
188 1 1 69.517 170.261 0
189 1 1 70.603 168.946 0
190 1 1 71.66 167.607 0
191 1 1 72.688 166.246 0
192 1 1 73.685 164.862 0
193 1 1 74.651 163.456 0
194 1 1 75.587 162.03 0
195 1 1 76.491 160.584 0
196 1 1 77.364 159.119 0
197 1 1 78.206 157.635 0
198 1 1 79.015 156.134 0
199 1 1 79.793 154.616 0
200 1 1 80.538 153.082 0
201 1 1 81.251 151.532 0
202 1 1 81.931 149.968 0
203 1 1 82.579 148.39 0
204 1 1 83.195 146.8 0
205 1 1 83.777 145.197 0
206 1 1 84.327 143.582 0
207 1 1 84.844 141.957 0
208 1 1 85.329 140.321 0
209 1 1 85.781 138.677 0
210 1 1 86.2 137.023 0
211 1 1 86.586 135.362 0
212 1 1 86.94 133.694 0
213 1 1 87.262 132.019 0
214 1 1 87.552 130.338 0
215 1 1 87.81 128.652 0
216 1 1 88.035 126.961 0
217 1 1 88.229 125.266 0
218 1 1 88.392 123.568 0
219 1 1 88.523 121.868 0
220 1 1 88.624 120.165 0
221 1 1 88.693 118.461 0
222 1 1 88.732 116.756 0
223 1 1 88.741 115.05 0
224 1 1 88.72 113.345 0
225 1 1 88.669 111.64 0
226 1 1 88.589 109.936 0
227 1 1 88.48 108.234 0
228 1 1 88.342 106.534 0
229 1 1 88.176 104.836 0
230 1 1 87.982 103.142 0
231 1 1 87.76 101.451 0
232 1 1 87.511 99.763 0
233 1 1 87.235 98.08 0
234 1 1 86.933 96.401 0
235 1 1 86.605 94.727 0
236 1 1 86.251 93.059 0
237 1 1 85.872 91.396 0
238 1 1 85.468 89.739 0
239 1 1 85.039 88.088 0
240 1 1 84.587 86.443 0
241 1 1 84.111 84.805 0
242 1 1 83.612 83.175 0
243 1 1 83.09 81.551 0
244 1 1 82.546 79.934 0
245 1 1 81.98 78.325 0
246 1 1 81.392 76.724 0
247 1 1 80.784 75.13 0
248 1 1 80.155 73.545 0
249 1 1 79.506 71.967 0
250 1 1 78.838 70.398 0
251 1 1 78.15 68.837 0
252 1 1 77.444 67.285 0
253 1 1 76.719 65.741 0
254 1 1 75.976 64.205 0
255 1 1 75.216 62.678 0
256 1 1 74.439 61.16 0
257 1 1 73.645 59.65 0
258 1 1 72.836 58.149 0
259 1 1 72.01 56.656 0
260 1 1 71.17 55.172 0
261 1 1 70.314 53.697 0
262 1 1 69.444 52.23 0
263 1 1 68.56 50.771 0
264 1 1 67.663 49.32 0
265 1 1 66.752 47.878 0
266 1 1 65.829 46.444 0
267 1 1 64.893 45.018 0
268 1 1 63.945 43.6 0
269 1 1 62.986 42.189 0
270 1 1 62.016 40.787 0
271 1 1 61.034 39.392 0
272 1 1 60.043 38.004 0
273 1 1 59.041 36.623 0
274 1 1 58.03 35.249 0
275 1 1 57.01 33.882 0
276 1 1 55.981 32.522 0
277 1 1 54.944 31.168 0
278 1 1 53.898 29.821 0
279 1 1 52.845 28.479 0
280 1 1 51.784 27.143 0
281 1 1 50.716 25.813 0
282 1 1 49.642 24.489 0
283 1 1 48.561 23.169 0
284 1 1 47.474 21.854 0
285 1 1 46.382 20.544 0
286 1 1 45.285 19.238 0
287 1 1 44.182 17.937 0
288 1 1 43.075 16.639 0
289 1 1 41.964 15.345 0
290 1 1 40.849 14.054 0
291 1 1 39.731 12.767 0
292 1 1 38.609 11.482 0
293 1 1 37.484 10.2 0
294 1 1 36.356 8.92 0
295 1 1 35.227 7.642 0
296 1 1 34.095 6.366 0
297 1 1 32.962 5.091 0
298 1 1 31.828 3.817 0
299 1 1 30.692 2.544 0
300 1 1 29.556 1.272 0
301 1 1 28.42 -0.0 0

Bonds

1 1 1 2
2 1 2 3
3 1 3 4
4 1 4 5
5 1 5 6
6 1 6 7
7 1 7 8
8 1 8 9
9 1 9 10
10 1 10 11
11 1 11 12
12 1 12 13
13 1 13 14
14 1 14 15
15 1 15 16
16 1 16 17
17 1 17 18
18 1 18 19
19 1 19 20
20 1 20 21
21 1 21 22
22 1 22 23
23 1 23 24
24 1 24 25
25 1 25 26
26 1 26 27
27 1 27 28
28 1 28 29
29 1 29 30
30 1 30 31
31 1 31 32
32 1 32 33
33 1 33 34
34 1 34 35
35 1 35 36
36 1 36 37
37 1 37 38
38 1 38 39
39 1 39 40
40 1 40 41
41 1 41 42
42 1 42 43
43 1 43 44
44 1 44 45
45 1 45 46
46 1 46 47
47 1 47 48
48 1 48 49
49 1 49 50
50 1 50 51
51 1 51 52
52 1 52 53
53 1 53 54
54 1 54 55
55 1 55 56
56 1 56 57
57 1 57 58
58 1 58 59
59 1 59 60
60 1 60 61
61 1 61 62
62 1 62 63
63 1 63 64
64 1 64 65
65 1 65 66
66 1 66 67
67 1 67 68
68 1 68 69
69 1 69 70
70 1 70 71
71 1 71 72
72 1 72 73
73 1 73 74
74 1 74 75
75 1 75 76
76 1 76 77
77 1 77 78
78 1 78 79
79 1 79 80
80 1 80 81
81 1 81 82
82 1 82 83
83 1 83 84
84 1 84 85
85 1 85 86
86 1 86 87
87 1 87 88
88 1 88 89
89 1 89 90
90 1 90 91
91 1 91 92
92 1 92 93
93 1 93 94
94 1 94 95
95 1 95 96
96 1 96 97
97 1 97 98
98 1 98 99
99 1 99 100
100 1 100 101
101 1 101 102
102 1 102 103
103 1 103 104
104 1 104 105
105 1 105 106
106 1 106 107
107 1 107 108
108 1 108 109
109 1 109 110
110 1 110 111
111 1 111 112
112 1 112 113
113 1 113 114
114 1 114 115
115 1 115 116
116 1 116 117
117 1 117 118
118 1 118 119
119 1 119 120
120 1 120 121
121 1 121 122
122 1 122 123
123 1 123 124
124 1 124 125
125 1 125 126
126 1 126 127
127 1 127 128
128 1 128 129
129 1 129 130
130 1 130 131
131 1 131 132
132 1 132 133
133 1 133 134
134 1 134 135
135 1 135 136
136 1 136 137
137 1 137 138
138 1 138 139
139 1 139 140
140 1 140 141
141 1 141 142
142 1 142 143
143 1 143 144
144 1 144 145
145 1 145 146
146 1 146 147
147 1 147 148
148 1 148 149
149 1 149 150
150 1 150 151
151 1 151 152
152 1 152 153
153 1 153 154
154 1 154 155
155 1 155 156
156 1 156 157
157 1 157 158
158 1 158 159
159 1 159 160
160 1 160 161
161 1 161 162
162 1 162 163
163 1 163 164
164 1 164 165
165 1 165 166
166 1 166 167
167 1 167 168
168 1 168 169
169 1 169 170
170 1 170 171
171 1 171 172
172 1 172 173
173 1 173 174
174 1 174 175
175 1 175 176
176 1 176 177
177 1 177 178
178 1 178 179
179 1 179 180
180 1 180 181
181 1 181 182
182 1 182 183
183 1 183 184
184 1 184 185
185 1 185 186
186 1 186 187
187 1 187 188
188 1 188 189
189 1 189 190
190 1 190 191
191 1 191 192
192 1 192 193
193 1 193 194
194 1 194 195
195 1 195 196
196 1 196 197
197 1 197 198
198 1 198 199
199 1 199 200
200 1 200 201
201 1 201 202
202 1 202 203
203 1 203 204
204 1 204 205
205 1 205 206
206 1 206 207
207 1 207 208
208 1 208 209
209 1 209 210
210 1 210 211
211 1 211 212
212 1 212 213
213 1 213 214
214 1 214 215
215 1 215 216
216 1 216 217
217 1 217 218
218 1 218 219
219 1 219 220
220 1 220 221
221 1 221 222
222 1 222 223
223 1 223 224
224 1 224 225
225 1 225 226
226 1 226 227
227 1 227 228
228 1 228 229
229 1 229 230
230 1 230 231
231 1 231 232
232 1 232 233
233 1 233 234
234 1 234 235
235 1 235 236
236 1 236 237
237 1 237 238
238 1 238 239
239 1 239 240
240 1 240 241
241 1 241 242
242 1 242 243
243 1 243 244
244 1 244 245
245 1 245 246
246 1 246 247
247 1 247 248
248 1 248 249
249 1 249 250
250 1 250 251
251 1 251 252
252 1 252 253
253 1 253 254
254 1 254 255
255 1 255 256
256 1 256 257
257 1 257 258
258 1 258 259
259 1 259 260
260 1 260 261
261 1 261 262
262 1 262 263
263 1 263 264
264 1 264 265
265 1 265 266
266 1 266 267
267 1 267 268
268 1 268 269
269 1 269 270
270 1 270 271
271 1 271 272
272 1 272 273
273 1 273 274
274 1 274 275
275 1 275 276
276 1 276 277
277 1 277 278
278 1 278 279
279 1 279 280
280 1 280 281
281 1 281 282
282 1 282 283
283 1 283 284
284 1 284 285
285 1 285 286
286 1 286 287
287 1 287 288
288 1 288 289
289 1 289 290
290 1 290 291
291 1 291 292
292 1 292 293
293 1 293 294
294 1 294 295
295 1 295 296
296 1 296 297
297 1 297 298
298 1 298 299
299 1 299 300
300 1 300 301

Angles

1 1 1 2 3
2 1 2 3 4
3 1 3 4 5
4 1 4 5 6
5 1 5 6 7
6 1 6 7 8
7 1 7 8 9
8 1 8 9 10
9 1 9 10 11
10 1 10 11 12
11 1 11 12 13
12 1 12 13 14
13 1 13 14 15
14 1 14 15 16
15 1 15 16 17
16 1 16 17 18
17 1 17 18 19
18 1 18 19 20
19 1 19 20 21
20 1 20 21 22
21 1 21 22 23
22 1 22 23 24
23 1 23 24 25
24 1 24 25 26
25 1 25 26 27
26 1 26 27 28
27 1 27 28 29
28 1 28 29 30
29 1 29 30 31
30 1 30 31 32
31 1 31 32 33
32 1 32 33 34
33 1 33 34 35
34 1 34 35 36
35 1 35 36 37
36 1 36 37 38
37 1 37 38 39
38 1 38 39 40
39 1 39 40 41
40 1 40 41 42
41 1 41 42 43
42 1 42 43 44
43 1 43 44 45
44 1 44 45 46
45 1 45 46 47
46 1 46 47 48
47 1 47 48 49
48 1 48 49 50
49 1 49 50 51
50 1 50 51 52
51 1 51 52 53
52 1 52 53 54
53 1 53 54 55
54 1 54 55 56
55 1 55 56 57
56 1 56 57 58
57 1 57 58 59
58 1 58 59 60
59 1 59 60 61
60 1 60 61 62
61 1 61 62 63
62 1 62 63 64
63 1 63 64 65
64 1 64 65 66
65 1 65 66 67
66 1 66 67 68
67 1 67 68 69
68 1 68 69 70
69 1 69 70 71
70 1 70 71 72
71 1 71 72 73
72 1 72 73 74
73 1 73 74 75
74 1 74 75 76
75 1 75 76 77
76 1 76 77 78
77 1 77 78 79
78 1 78 79 80
79 1 79 80 81
80 1 80 81 82
81 1 81 82 83
82 1 82 83 84
83 1 83 84 85
84 1 84 85 86
85 1 85 86 87
86 1 86 87 88
87 1 87 88 89
88 1 88 89 90
89 1 89 90 91
90 1 90 91 92
91 1 91 92 93
92 1 92 93 94
93 1 93 94 95
94 1 94 95 96
95 1 95 96 97
96 1 96 97 98
97 1 97 98 99
98 1 98 99 100
99 1 99 100 101
100 1 100 101 102
101 1 101 102 103
102 1 102 103 104
103 1 103 104 105
104 1 104 105 106
105 1 105 106 107
106 1 106 107 108
107 1 107 108 109
108 1 108 109 110
109 1 109 110 111
110 1 110 111 112
111 1 111 112 113
112 1 112 113 114
113 1 113 114 115
114 1 114 115 116
115 1 115 116 117
116 1 116 117 118
117 1 117 118 119
118 1 118 119 120
119 1 119 120 121
120 1 120 121 122
121 1 121 122 123
122 1 122 123 124
123 1 123 124 125
124 1 124 125 126
125 1 125 126 127
126 1 126 127 128
127 1 127 128 129
128 1 128 129 130
129 1 129 130 131
130 1 130 131 132
131 1 131 132 133
132 1 132 133 134
133 1 133 134 135
134 1 134 135 136
135 1 135 136 137
136 1 136 137 138
137 1 137 138 139
138 1 138 139 140
139 1 139 140 141
140 1 140 141 142
141 1 141 142 143
142 1 142 143 144
143 1 143 144 145
144 1 144 145 146
145 1 145 146 147
146 1 146 147 148
147 1 147 148 149
148 1 148 149 150
149 1 149 150 151
150 1 150 151 152
151 1 151 152 153
152 1 152 153 154
153 1 153 154 155
154 1 154 155 156
155 1 155 156 157
156 1 156 157 158
157 1 157 158 159
158 1 158 159 160
159 1 159 160 161
160 1 160 161 162
161 1 161 162 163
162 1 162 163 164
163 1 163 164 165
164 1 164 165 166
165 1 165 166 167
166 1 166 167 168
167 1 167 168 169
168 1 168 169 170
169 1 169 170 171
170 1 170 171 172
171 1 171 172 173
172 1 172 173 174
173 1 173 174 175
174 1 174 175 176
175 1 175 176 177
176 1 176 177 178
177 1 177 178 179
178 1 178 179 180
179 1 179 180 181
180 1 180 181 182
181 1 181 182 183
182 1 182 183 184
183 1 183 184 185
184 1 184 185 186
185 1 185 186 187
186 1 186 187 188
187 1 187 188 189
188 1 188 189 190
189 1 189 190 191
190 1 190 191 192
191 1 191 192 193
192 1 192 193 194
193 1 193 194 195
194 1 194 195 196
195 1 195 196 197
196 1 196 197 198
197 1 197 198 199
198 1 198 199 200
199 1 199 200 201
200 1 200 201 202
201 1 201 202 203
202 1 202 203 204
203 1 203 204 205
204 1 204 205 206
205 1 205 206 207
206 1 206 207 208
207 1 207 208 209
208 1 208 209 210
209 1 209 210 211
210 1 210 211 212
211 1 211 212 213
212 1 212 213 214
213 1 213 214 215
214 1 214 215 216
215 1 215 216 217
216 1 216 217 218
217 1 217 218 219
218 1 218 219 220
219 1 219 220 221
220 1 220 221 222
221 1 221 222 223
222 1 222 223 224
223 1 223 224 225
224 1 224 225 226
225 1 225 226 227
226 1 226 227 228
227 1 227 228 229
228 1 228 229 230
229 1 229 230 231
230 1 230 231 232
231 1 231 232 233
232 1 232 233 234
233 1 233 234 235
234 1 234 235 236
235 1 235 236 237
236 1 236 237 238
237 1 237 238 239
238 1 238 239 240
239 1 239 240 241
240 1 240 241 242
241 1 241 242 243
242 1 242 243 244
243 1 243 244 245
244 1 244 245 246
245 1 245 246 247
246 1 246 247 248
247 1 247 248 249
248 1 248 249 250
249 1 249 250 251
250 1 250 251 252
251 1 251 252 253
252 1 252 253 254
253 1 253 254 255
254 1 254 255 256
255 1 255 256 257
256 1 256 257 258
257 1 257 258 259
258 1 258 259 260
259 1 259 260 261
260 1 260 261 262
261 1 261 262 263
262 1 262 263 264
263 1 263 264 265
264 1 264 265 266
265 1 265 266 267
266 1 266 267 268
267 1 267 268 269
268 1 268 269 270
269 1 269 270 271
270 1 270 271 272
271 1 271 272 273
272 1 272 273 274
273 1 273 274 275
274 1 274 275 276
275 1 275 276 277
276 1 276 277 278
277 1 277 278 279
278 1 278 279 280
279 1 279 280 281
280 1 280 281 282
281 1 281 282 283
282 1 282 283 284
283 1 283 284 285
284 1 284 285 286
285 1 285 286 287
286 1 286 287 288
287 1 287 288 289
288 1 288 289 290
289 1 289 290 291
290 1 290 291 292
291 1 291 292 293
292 1 292 293 294
293 1 293 294 295
294 1 294 295 296
295 1 295 296 297
296 1 296 297 298
297 1 297 298 299
298 1 298 299 300
299 1 299 300 301
